   * xtb version 6.6.1 (8d0f1dd) compiled by 'runner@Mac-1690902400584.local' on 2023-08-01
          program call               : xtb --norestart --verbose --parallel 1 --opt --gfn2 -- mol.xyz

   ID    Z sym.   atoms
    1    6 C      1-4
    2    1 H      5-14

          :  Hamiltonian                  GFN2-xTB          :
 * total energy  :   -13.6565548 Eh     change       -0.6515144E-10 Eh
 * total energy  :   -13.6640803 Eh     change       -0.7525513E-02 Eh
 * total energy  :   -13.6645432 Eh     change       -0.4628745E-03 Eh
 * total energy  :   -13.6647484 Eh     change       -0.2052154E-03 Eh
 * total energy  :   -13.6649055 Eh     change       -0.1570443E-03 Eh
 * total energy  :   -13.6650009 Eh     change       -0.9540775E-04 Eh
 * total energy  :   -13.6650841 Eh     change       -0.8320557E-04 Eh
 * total energy  :   -13.6651046 Eh     change       -0.2052158E-04 Eh
 * total energy  :   -13.6651147 Eh     change       -0.1009590E-04 Eh
 * total energy  :   -13.6651178 Eh     change       -0.3058145E-05 Eh
   *** GEOMETRY OPTIMIZATION CONVERGED AFTER 10 ITERATIONS ***

 final structure:
================
14
 xtb: 6.6.1 (8d0f1dd)
C           -1.02889337694838        1.61573417964817        0.94272070900122
C           -1.09893292364676        0.09715260781457        0.84053620268990
C            0.28972850779168       -0.53346883573613        0.76756548375820
C            0.22292051633829       -2.05431614740671        0.70599483107513
H           -2.02726907195540        2.04478850406983        0.98330331679613
H           -0.49136300342949        1.91248699241394        1.84150030167198
H           -0.51022380813144        2.03313771252953        0.08188783116647
H           -1.62888075665758       -0.30047077843427        1.70954779965719
H           -1.66838417151835       -0.18168525049503       -0.04919670723259
H            0.86728388929300       -0.23120059520847        1.64447791823611
H            0.81005211816011       -0.15667242186520       -0.11613608272938
H            1.22266181354785       -2.48089314387201        0.66260655873346
H           -0.28111753145755       -2.44954618210451        1.58635023569354
H           -0.32782901122833       -2.37710411138294       -0.17565192460223

          :  Hamiltonian                  GFN2-xTB          :
         :: total energy             -13.665117772109 Eh    ::
         :: gradient norm              0.000847063466 Eh/a0 ::
         :: HOMO-LUMO gap             13.802000648621 eV    ::
         :: SCC energy               -13.875783516437 Eh    ::
         :: -> dispersion             -0.006049230467 Eh    ::
         :: repulsion energy           0.210661867267 Eh    ::

    * Orbital Energies and Occupations

         #    Occupation            Energy/Eh            Energy/eV
      -------------------------------------------------------------
         1        2.0000           -0.6179649             -16.8157
         2        2.0000           -0.5989589             -16.2985
         3        2.0000           -0.5678869             -15.4530
         4        2.0000           -0.5523941             -15.0314
         5        2.0000           -0.5138241             -13.9819
         6        2.0000           -0.4918552             -13.3841
         7        2.0000           -0.4878990             -13.2764
         8        2.0000           -0.4789482             -13.0328
         9        2.0000           -0.4546512             -12.3717
        10        2.0000           -0.4395443             -11.9606
        11        2.0000           -0.4366792             -11.8826
        12        2.0000           -0.4258212             -11.5872
        13        2.0000           -0.4195419             -11.4163 (HOMO)
        14                          0.0876723               2.3857 (LUMO)
        15                          0.1266105               3.4452
        16                          0.1275003               3.4695
        17                          0.1526284               4.1532
        18                          0.1627141               4.4277
        19                          0.1832512               4.9865
        20                          0.1933775               5.2621
        21                          0.1965806               5.3492
        22                          0.2243121               6.1038
        23                          0.2547629               6.9325
        24                          0.2642148               7.1897
       ...                                ...                  ...
        26                          0.3111402               8.4666
      -------------------------------------------------------------
                  HL-Gap            0.5072142 Eh           13.8020 eV

     #   Z          covCN         q      C6AA      α(0)
     1   6 C        3.752    -0.102    22.509     6.766
     2   6 C        3.801    -0.053    21.534     6.607
     3   6 C        3.801    -0.053    21.534     6.607
     4   6 C        3.752    -0.102    22.508     6.766
     5   1 H        0.925     0.032     2.553     2.499
     6   1 H        0.925     0.032     2.552     2.498
     7   1 H        0.925     0.033     2.550     2.497
     8   1 H        0.924     0.029     2.599     2.521
     9   1 H        0.924     0.029     2.602     2.523
    10   1 H        0.924     0.029     2.598     2.521
    11   1 H        0.924     0.029     2.602     2.523
    12   1 H        0.925     0.032     2.553     2.499
    13   1 H        0.925     0.032     2.551     2.498
    14   1 H        0.925     0.033     2.551     2.498

Wiberg/Mayer (AO) data.
largest (>0.10) Wiberg bond orders for each atom

     #   Z sym  total        # sym  WBO       # sym  WBO       # sym  WBO
 ---------------------------------------------------------------------------
     1   6 C    3.997 --     2 C    1.019     6 H    0.988     7 H    0.988
                             5 H    0.988
     2   6 C    3.998 --     1 C    1.019     3 C    1.009     9 H    0.979
                             8 H    0.979
     3   6 C    3.998 --     4 C    1.019     2 C    1.009    11 H    0.979
                            10 H    0.979
     4   6 C    3.997 --     3 C    1.019    14 H    0.988    13 H    0.988
                            12 H    0.988
     5   1 H    0.999 --     1 C    0.988
     6   1 H    0.999 --     1 C    0.988
     7   1 H    0.999 --     1 C    0.988
     8   1 H    0.999 --     2 C    0.979
     9   1 H    0.999 --     2 C    0.979
    10   1 H    0.999 --     3 C    0.979
    11   1 H    0.999 --     3 C    0.979
    12   1 H    0.999 --     4 C    0.988
    13   1 H    0.999 --     4 C    0.988
    14   1 H    0.999 --     4 C    0.988
 ---------------------------------------------------------------------------

molecular dipole:
                 x           y           z       tot (Debye)
 q only:        0.000       0.000       0.001
   full:        0.000       0.000       0.001       0.002

           -------------------------------------------------
          | TOTAL ENERGY              -13.665117772109 Eh   |
          | GRADIENT NORM               0.000847063466 Eh/α |
          | HOMO-LUMO GAP              13.802000648621 eV   |
           -------------------------------------------------

 * finished run on 2023/08/31 at 18:00:48.802
normal termination of xtb
